#data/lammpsIn_N50.dat


50	 atoms
50	 bonds


1	 atom types
1	 bond types


# simulation box
-25.000000 25.000000 xlo xhi
-25.000000 25.000000 ylo yhi
-25.000000 25.000000 zlo zhi


Masses

1 1


Atoms

1	 1	 1	0.000000	0.000000	0.000000
2	 1	 1	0.866025	0.500000	0.000000
3	 1	 1	1.866025	0.500000	0.000000
4	 1	 1	2.866025	0.500000	0.000000
5	 1	 1	3.866025	0.500000	0.000000
6	 1	 1	4.866025	0.500000	0.000000
7	 1	 1	5.866025	0.500000	0.000000
8	 1	 1	6.866025	0.500000	0.000000
9	 1	 1	7.866025	0.500000	0.000000
10	 1	 1	8.866025	0.500000	0.000000
11	 1	 1	9.866025	0.500000	0.000000
12	 1	 1	10.866025	0.500000	0.000000
13	 1	 1	11.866025	0.500000	0.000000
14	 1	 1	12.866025	0.500000	0.000000
15	 1	 1	13.866025	0.500000	0.000000
16	 1	 1	14.866025	0.500000	0.000000
17	 1	 1	15.866025	0.500000	0.000000
18	 1	 1	16.866025	0.500000	0.000000
19	 1	 1	17.866025	0.500000	0.000000
20	 1	 1	18.866025	0.500000	0.000000
21	 1	 1	19.866025	0.500000	0.000000
22	 1	 1	20.866025	0.500000	0.000000
23	 1	 1	21.866025	0.500000	0.000000
24	 1	 1	22.866025	0.500000	0.000000
25	 1	 1	23.866025	0.500000	0.000000
26	 1	 1	24.732051	0.000000	0.000000
27	 1	 1	23.866025	-0.500000	0.000000
28	 1	 1	22.866025	-0.500000	0.000000
29	 1	 1	21.866025	-0.500000	0.000000
30	 1	 1	20.866025	-0.500000	0.000000
31	 1	 1	19.866025	-0.500000	0.000000
32	 1	 1	18.866025	-0.500000	0.000000
33	 1	 1	17.866025	-0.500000	0.000000
34	 1	 1	16.866025	-0.500000	0.000000
35	 1	 1	15.866025	-0.500000	0.000000
36	 1	 1	14.866025	-0.500000	0.000000
37	 1	 1	13.866025	-0.500000	0.000000
38	 1	 1	12.866025	-0.500000	0.000000
39	 1	 1	11.866025	-0.500000	0.000000
40	 1	 1	10.866025	-0.500000	0.000000
41	 1	 1	9.866025	-0.500000	0.000000
42	 1	 1	8.866025	-0.500000	0.000000
43	 1	 1	7.866025	-0.500000	0.000000
44	 1	 1	6.866025	-0.500000	0.000000
45	 1	 1	5.866025	-0.500000	0.000000
46	 1	 1	4.866025	-0.500000	0.000000
47	 1	 1	3.866025	-0.500000	0.000000
48	 1	 1	2.866025	-0.500000	0.000000
49	 1	 1	1.866025	-0.500000	0.000000
50	 1	 1	0.866025	-0.500000	0.000000


Bonds

1	 1	 1	2
2	 1	 2	3
3	 1	 3	4
4	 1	 4	5
5	 1	 5	6
6	 1	 6	7
7	 1	 7	8
8	 1	 8	9
9	 1	 9	10
10	 1	 10	11
11	 1	 11	12
12	 1	 12	13
13	 1	 13	14
14	 1	 14	15
15	 1	 15	16
16	 1	 16	17
17	 1	 17	18
18	 1	 18	19
19	 1	 19	20
20	 1	 20	21
21	 1	 21	22
22	 1	 22	23
23	 1	 23	24
24	 1	 24	25
25	 1	 25	26
26	 1	 26	27
27	 1	 27	28
28	 1	 28	29
29	 1	 29	30
30	 1	 30	31
31	 1	 31	32
32	 1	 32	33
33	 1	 33	34
34	 1	 34	35
35	 1	 35	36
36	 1	 36	37
37	 1	 37	38
38	 1	 38	39
39	 1	 39	40
40	 1	 40	41
41	 1	 41	42
42	 1	 42	43
43	 1	 43	44
44	 1	 44	45
45	 1	 45	46
46	 1	 46	47
47	 1	 47	48
48	 1	 48	49
49	 1	 49	50
50	 1	 50	1
