LAMMPS (12 Feb 2014)
# VARIABLES
variable fname index lammpsIn_N50.dat
variable simname index myTest

# Initialization
units lj
boundary f f f
atom_style bond
special_bonds  fene
atom_modify sort 0 1.0
log log.${simname}.txt
log log.myTest.txt
