50
Atoms. Timestep: 51800000
1 -0.0280386 -0.0119807 -0.0803644
1 0.226323 0.276767 -1.0021
1 0.336747 0.890283 -1.7855
1 0.747872 0.881263 -0.867108
1 0.456488 1.8293 -0.786625
1 1.42278 1.71876 -1.00052
1 0.881659 2.14385 -1.72751
1 0.79788 1.3536 -2.33402
1 0.959168 1.58438 -3.29371
1 1.39961 2.48497 -3.21336
1 0.866121 3.30625 -3.02222
1 0.85462 3.7774 -2.13793
1 0.93458 4.6393 -2.63613
1 1.49499 4.1155 -3.27876
1 2.03362 4.93879 -3.10894
1 2.69104 5.21163 -2.4089
1 2.44756 4.95996 -1.46699
1 2.7678 4.3582 -0.739301
1 2.61939 3.62117 -1.3941
1 2.92613 2.86456 -0.813886
1 3.74231 3.44227 -0.836726
1 2.95073 3.47678 -0.231627
1 2.61045 2.98453 0.571742
1 2.51798 2.14448 1.10946
1 1.69006 1.67224 1.40109
1 1.3899 0.74803 1.15186
1 2.31223 1.00888 1.44337
1 2.57429 1.34812 2.34949
1 3.41165 0.909605 2.0339
1 2.99669 -0.0019083 1.9371
1 2.70997 0.317775 2.84754
1 2.27593 -0.289422 3.51514
1 2.34271 -0.99072 4.2239
1 1.54622 -0.522002 3.83721
1 0.552099 -0.649132 3.92011
1 0.948309 0.195699 3.57742
1 0.995715 1.18343 3.43532
1 0.488606 2.04842 3.41394
1 -0.241753 1.5941 2.90069
1 -0.0559735 1.40456 1.93862
1 -0.692622 1.77145 1.2485
1 -1.0926 1.40392 2.09524
1 -1.2167 0.788535 2.86925
1 -1.32268 0.494866 1.91939
1 -0.499924 -0.0727577 1.95423
1 -1.07749 -0.505908 1.26376
1 -1.17469 0.0197961 0.422656
1 -1.56344 -0.713615 -0.126534
1 -0.7551 -0.702762 0.46437
1 0.237237 -0.712902 0.573831
